<?xml version="1.0"?>
<psml version="0" creator="wireshark/1.4.3">
<structure>
<section>No.</section>
<section>Time</section>
<section>Source</section>
<section>Destination</section>
<section>Protocol</section>
<section>Info</section>
<section>Length</section>
</structure>

<packet>
<section>1</section>
<section>0.000000</section>
<section>192.168.2.1</section>
<section>192.168.2.255</section>
<section>NBNS</section>
<section>Name query NB NOMAD&lt;20&gt;</section>
<section>92</section>
</packet>

<packet>
<section>2</section>
<section>0.031598</section>
<section>CadmusCo_00:58:c8</section>
<section>Broadcast</section>
<section>ARP</section>
<section>Who has 192.168.2.1?  Tell 0.0.0.0</section>
<section>42</section>
</packet>

<packet>
<section>3</section>
<section>0.070826</section>
<section>192.168.2.1</section>
<section>192.168.2.255</section>
<section>NBNS</section>
<section>Name query NB WPAD&lt;00&gt;</section>
<section>92</section>
</packet>

<packet>
<section>4</section>
<section>0.278660</section>
<section>192.168.2.1</section>
<section>192.168.2.255</section>
<section>NBNS</section>
<section>Registration NB WORKGROUP&lt;00&gt;</section>
<section>110</section>
</packet>

<packet>
<section>5</section>
<section>0.278693</section>
<section>192.168.2.1</section>
<section>192.168.2.255</section>
<section>NBNS</section>
<section>Registration NB MAIN&lt;00&gt;</section>
<section>110</section>
</packet>

<packet>
<section>6</section>
<section>0.290133</section>
<section>192.168.2.1</section>
<section>192.168.2.255</section>
<section>NBNS</section>
<section>Registration NB MAIN&lt;20&gt;</section>
<section>110</section>
</packet>

<packet>
<section>7</section>
<section>0.673520</section>
<section>fe80::802a:bdfb:4cbb:6ebf</section>
<section>ff02::1:3</section>
<section>LLMNR</section>
<section>Standard query A isatap</section>
<section>86</section>
</packet>

<packet>
<section>8</section>
<section>0.673589</section>
<section>192.168.2.1</section>
<section>224.0.0.252</section>
<section>LLMNR</section>
<section>Standard query A isatap</section>
<section>66</section>
</packet>

<packet>
<section>9</section>
<section>0.749708</section>
<section>192.168.2.1</section>
<section>192.168.2.255</section>
<section>NBNS</section>
<section>Name query NB NOMAD&lt;20&gt;</section>
<section>92</section>
</packet>

<packet>
<section>10</section>
<section>0.820715</section>
<section>192.168.2.1</section>
<section>192.168.2.255</section>
<section>NBNS</section>
<section>Name query NB WPAD&lt;00&gt;</section>
<section>92</section>
</packet>

<packet>
<section>11</section>
<section>0.874109</section>
<section>192.168.2.1</section>
<section>192.168.2.255</section>
<section>NBNS</section>
<section>Name query NB ISATAP&lt;00&gt;</section>
<section>92</section>
</packet>

<packet>
<section>12</section>
<section>0.955309</section>
<section>fe80::802a:bdfb:4cbb:6ebf</section>
<section>ff02::1:2</section>
<section>DHCPv6</section>
<section>Solicit XID: 0xdbaea7 CID: 0001000114a6911d001fd0504fd7 </section>
<section>146</section>
</packet>

<packet>
<section>13</section>
<section>1.029488</section>
<section>192.168.2.1</section>
<section>192.168.2.255</section>
<section>NBNS</section>
<section>Registration NB WORKGROUP&lt;1e&gt;</section>
<section>110</section>
</packet>

<packet>
<section>14</section>
<section>1.125877</section>
<section>192.168.2.1</section>
<section>239.255.255.250</section>
<section>SSDP</section>
<section>M-SEARCH * HTTP/1.1 </section>
<section>175</section>
</packet>

<packet>
<section>15</section>
<section>1.500306</section>
<section>192.168.2.1</section>
<section>192.168.2.255</section>
<section>NBNS</section>
<section>Name query NB NOMAD&lt;20&gt;</section>
<section>92</section>
</packet>

<packet>
<section>16</section>
<section>1.571368</section>
<section>192.168.2.1</section>
<section>192.168.2.255</section>
<section>NBNS</section>
<section>Name query NB WPAD&lt;00&gt;</section>
<section>92</section>
</packet>

<packet>
<section>17</section>
<section>1.623813</section>
<section>192.168.2.1</section>
<section>192.168.2.255</section>
<section>NBNS</section>
<section>Name query NB ISATAP&lt;00&gt;</section>
<section>92</section>
</packet>

<packet>
<section>18</section>
<section>1.779332</section>
<section>192.168.2.1</section>
<section>192.168.2.255</section>
<section>NBNS</section>
<section>Registration NB WORKGROUP&lt;1e&gt;</section>
<section>110</section>
</packet>

<packet>
<section>19</section>
<section>2.031861</section>
<section>fe80::802a:bdfb:4cbb:6ebf</section>
<section>ff02::2</section>
<section>ICMPv6</section>
<section>Router solicitation</section>
<section>70</section>
</packet>

<packet>
<section>20</section>
<section>2.352290</section>
<section>fe80::802a:bdfb:4cbb:6ebf</section>
<section>ff02::1:3</section>
<section>LLMNR</section>
<section>Standard query A NOMAD</section>
<section>85</section>
</packet>

<packet>
<section>21</section>
<section>2.352361</section>
<section>192.168.2.1</section>
<section>224.0.0.252</section>
<section>LLMNR</section>
<section>Standard query A NOMAD</section>
<section>65</section>
</packet>

<packet>
<section>22</section>
<section>2.374878</section>
<section>192.168.2.1</section>
<section>192.168.2.255</section>
<section>NBNS</section>
<section>Name query NB ISATAP&lt;00&gt;</section>
<section>92</section>
</packet>

<packet>
<section>23</section>
<section>2.530421</section>
<section>192.168.2.1</section>
<section>192.168.2.255</section>
<section>NBNS</section>
<section>Registration NB WORKGROUP&lt;1e&gt;</section>
<section>110</section>
</packet>

<packet>
<section>24</section>
<section>2.552984</section>
<section>192.168.2.1</section>
<section>192.168.2.255</section>
<section>NBNS</section>
<section>Name query NB NOMAD&lt;20&gt;</section>
<section>92</section>
</packet>

<packet>
<section>25</section>
<section>3.144000</section>
<section>fe80::802a:bdfb:4cbb:6ebf</section>
<section>ff02::1:3</section>
<section>LLMNR</section>
<section>Standard query A wpad</section>
<section>84</section>
</packet>

<packet>
<section>26</section>
<section>3.144069</section>
<section>192.168.2.1</section>
<section>224.0.0.252</section>
<section>LLMNR</section>
<section>Standard query A wpad</section>
<section>64</section>
</packet>

<packet>
<section>27</section>
<section>3.228801</section>
<section>fe80::802a:bdfb:4cbb:6ebf</section>
<section>ff02::1:3</section>
<section>LLMNR</section>
<section>Standard query A isatap</section>
<section>86</section>
</packet>

<packet>
<section>28</section>
<section>3.228869</section>
<section>192.168.2.1</section>
<section>224.0.0.252</section>
<section>LLMNR</section>
<section>Standard query A isatap</section>
<section>66</section>
</packet>

<packet>
<section>29</section>
<section>3.283006</section>
<section>192.168.2.1</section>
<section>192.168.2.255</section>
<section>NBNS</section>
<section>Registration NB WORKGROUP&lt;1e&gt;</section>
<section>110</section>
</packet>

<packet>
<section>30</section>
<section>3.305471</section>
<section>192.168.2.1</section>
<section>192.168.2.255</section>
<section>NBNS</section>
<section>Name query NB NOMAD&lt;20&gt;</section>
<section>92</section>
</packet>

<packet>
<section>31</section>
<section>3.344818</section>
<section>192.168.2.1</section>
<section>192.168.2.255</section>
<section>NBNS</section>
<section>Name query NB WPAD&lt;00&gt;</section>
<section>92</section>
</packet>

<packet>
<section>32</section>
<section>3.429150</section>
<section>192.168.2.1</section>
<section>192.168.2.255</section>
<section>NBNS</section>
<section>Name query NB ISATAP&lt;00&gt;</section>
<section>92</section>
</packet>

<packet>
<section>33</section>
<section>4.037328</section>
<section>192.168.2.1</section>
<section>192.168.2.255</section>
<section>BROWSER</section>
<section>Request Announcement MAIN</section>
<section>217</section>
</packet>

<packet>
<section>34</section>
<section>4.044789</section>
<section>192.168.2.1</section>
<section>192.168.2.255</section>
<section>BROWSER</section>
<section>Host Announcement MAIN, Workstation, Server, SQL Server, Print Queue Server, NT Workstation, Potential Browser</section>
<section>243</section>
</packet>

<packet>
<section>35</section>
<section>4.059586</section>
<section>192.168.2.1</section>
<section>192.168.2.255</section>
<section>NBNS</section>
<section>Name query NB NOMAD&lt;20&gt;</section>
<section>92</section>
</packet>

<packet>
<section>36</section>
<section>4.098588</section>
<section>192.168.2.1</section>
<section>192.168.2.255</section>
<section>NBNS</section>
<section>Name query NB WPAD&lt;00&gt;</section>
<section>92</section>
</packet>

<packet>
<section>37</section>
<section>4.133683</section>
<section>192.168.2.1</section>
<section>239.255.255.250</section>
<section>SSDP</section>
<section>M-SEARCH * HTTP/1.1 </section>
<section>175</section>
</packet>

<packet>
<section>38</section>
<section>4.183081</section>
<section>192.168.2.1</section>
<section>192.168.2.255</section>
<section>NBNS</section>
<section>Name query NB ISATAP&lt;00&gt;</section>
<section>92</section>
</packet>

<packet>
<section>39</section>
<section>4.852758</section>
<section>192.168.2.1</section>
<section>192.168.2.255</section>
<section>NBNS</section>
<section>Name query NB WPAD&lt;00&gt;</section>
<section>92</section>
</packet>

<packet>
<section>40</section>
<section>4.914981</section>
<section>fe80::802a:bdfb:4cbb:6ebf</section>
<section>ff02::1:3</section>
<section>LLMNR</section>
<section>Standard query A NOMAD</section>
<section>85</section>
</packet>

<packet>
<section>41</section>
<section>4.915046</section>
<section>192.168.2.1</section>
<section>224.0.0.252</section>
<section>LLMNR</section>
<section>Standard query A NOMAD</section>
<section>65</section>
</packet>

<packet>
<section>42</section>
<section>4.937212</section>
<section>192.168.2.1</section>
<section>192.168.2.255</section>
<section>NBNS</section>
<section>Name query NB ISATAP&lt;00&gt;</section>
<section>92</section>
</packet>

<packet>
<section>43</section>
<section>4.966738</section>
<section>fe80::802a:bdfb:4cbb:6ebf</section>
<section>ff02::1:2</section>
<section>DHCPv6</section>
<section>Solicit XID: 0xdbaea7 CID: 0001000114a6911d001fd0504fd7 </section>
<section>146</section>
</packet>

<packet>
<section>44</section>
<section>5.115092</section>
<section>192.168.2.1</section>
<section>192.168.2.255</section>
<section>NBNS</section>
<section>Name query NB NOMAD&lt;20&gt;</section>
<section>92</section>
</packet>

<packet>
<section>45</section>
<section>5.541302</section>
<section>192.168.2.1</section>
<section>192.168.2.255</section>
<section>BROWSER</section>
<section>Request Announcement MAIN</section>
<section>217</section>
</packet>

<packet>
<section>46</section>
<section>5.723105</section>
<section>fe80::802a:bdfb:4cbb:6ebf</section>
<section>ff02::1:3</section>
<section>LLMNR</section>
<section>Standard query A djxeqmbfto</section>
<section>90</section>
</packet>

<packet>
<section>47</section>
<section>5.723171</section>
<section>192.168.2.1</section>
<section>224.0.0.252</section>
<section>LLMNR</section>
<section>Standard query A djxeqmbfto</section>
<section>70</section>
</packet>

<packet>
<section>48</section>
<section>5.723544</section>
<section>fe80::802a:bdfb:4cbb:6ebf</section>
<section>ff02::1:3</section>
<section>LLMNR</section>
<section>Standard query A qwawvfquzc</section>
<section>90</section>
</packet>

<packet>
<section>49</section>
<section>5.723603</section>
<section>192.168.2.1</section>
<section>224.0.0.252</section>
<section>LLMNR</section>
<section>Standard query A qwawvfquzc</section>
<section>70</section>
</packet>

<packet>
<section>50</section>
<section>5.724004</section>
<section>fe80::802a:bdfb:4cbb:6ebf</section>
<section>ff02::1:3</section>
<section>LLMNR</section>
<section>Standard query A ideawxovnx</section>
<section>90</section>
</packet>

<packet>
<section>51</section>
<section>5.724062</section>
<section>192.168.2.1</section>
<section>224.0.0.252</section>
<section>LLMNR</section>
<section>Standard query A ideawxovnx</section>
<section>70</section>
</packet>

<packet>
<section>52</section>
<section>5.865749</section>
<section>192.168.2.1</section>
<section>192.168.2.255</section>
<section>NBNS</section>
<section>Name query NB NOMAD&lt;20&gt;</section>
<section>92</section>
</packet>

<packet>
<section>53</section>
<section>5.924219</section>
<section>192.168.2.1</section>
<section>192.168.2.255</section>
<section>NBNS</section>
<section>Name query NB DJXEQMBFTO&lt;00&gt;</section>
<section>92</section>
</packet>

<packet>
<section>54</section>
<section>5.924510</section>
<section>192.168.2.1</section>
<section>192.168.2.255</section>
<section>NBNS</section>
<section>Name query NB QWAWVFQUZC&lt;00&gt;</section>
<section>92</section>
</packet>

<packet>
<section>55</section>
<section>5.925012</section>
<section>192.168.2.1</section>
<section>192.168.2.255</section>
<section>NBNS</section>
<section>Name query NB IDEAWXOVNX&lt;00&gt;</section>
<section>92</section>
</packet>

<packet>
<section>56</section>
<section>6.044318</section>
<section>fe80::802a:bdfb:4cbb:6ebf</section>
<section>ff02::2</section>
<section>ICMPv6</section>
<section>Router solicitation</section>
<section>70</section>
</packet>

<packet>
<section>57</section>
<section>6.619457</section>
<section>192.168.2.1</section>
<section>192.168.2.255</section>
<section>NBNS</section>
<section>Name query NB NOMAD&lt;20&gt;</section>
<section>92</section>
</packet>

<packet>
<section>58</section>
<section>6.677419</section>
<section>192.168.2.1</section>
<section>192.168.2.255</section>
<section>NBNS</section>
<section>Name query NB DJXEQMBFTO&lt;00&gt;</section>
<section>92</section>
</packet>

<packet>
<section>59</section>
<section>6.677866</section>
<section>192.168.2.1</section>
<section>192.168.2.255</section>
<section>NBNS</section>
<section>Name query NB QWAWVFQUZC&lt;00&gt;</section>
<section>92</section>
</packet>

<packet>
<section>60</section>
<section>6.678366</section>
<section>192.168.2.1</section>
<section>192.168.2.255</section>
<section>NBNS</section>
<section>Name query NB IDEAWXOVNX&lt;00&gt;</section>
<section>92</section>
</packet>

<packet>
<section>61</section>
<section>7.047969</section>
<section>192.168.2.1</section>
<section>192.168.2.255</section>
<section>BROWSER</section>
<section>Request Announcement MAIN</section>
<section>217</section>
</packet>

<packet>
<section>62</section>
<section>7.195939</section>
<section>192.168.2.1</section>
<section>239.255.255.250</section>
<section>SSDP</section>
<section>M-SEARCH * HTTP/1.1 </section>
<section>175</section>
</packet>

<packet>
<section>63</section>
<section>7.430091</section>
<section>192.168.2.1</section>
<section>192.168.2.255</section>
<section>NBNS</section>
<section>Name query NB DJXEQMBFTO&lt;00&gt;</section>
<section>92</section>
</packet>

<packet>
<section>64</section>
<section>7.430486</section>
<section>192.168.2.1</section>
<section>192.168.2.255</section>
<section>NBNS</section>
<section>Name query NB QWAWVFQUZC&lt;00&gt;</section>
<section>92</section>
</packet>

<packet>
<section>65</section>
<section>7.431005</section>
<section>192.168.2.1</section>
<section>192.168.2.255</section>
<section>NBNS</section>
<section>Name query NB IDEAWXOVNX&lt;00&gt;</section>
<section>92</section>
</packet>

<packet>
<section>66</section>
<section>7.473839</section>
<section>fe80::802a:bdfb:4cbb:6ebf</section>
<section>ff02::1:3</section>
<section>LLMNR</section>
<section>Standard query A NOMAD</section>
<section>85</section>
</packet>

<packet>
<section>67</section>
<section>7.473907</section>
<section>192.168.2.1</section>
<section>224.0.0.252</section>
<section>LLMNR</section>
<section>Standard query A NOMAD</section>
<section>65</section>
</packet>

<packet>
<section>68</section>
<section>7.675422</section>
<section>192.168.2.1</section>
<section>192.168.2.255</section>
<section>NBNS</section>
<section>Name query NB NOMAD&lt;20&gt;</section>
<section>92</section>
</packet>

<packet>
<section>69</section>
<section>8.296396</section>
<section>fe80::802a:bdfb:4cbb:6ebf</section>
<section>ff02::1:3</section>
<section>LLMNR</section>
<section>Standard query A djxeqmbfto</section>
<section>90</section>
</packet>

<packet>
<section>70</section>
<section>8.296462</section>
<section>192.168.2.1</section>
<section>224.0.0.252</section>
<section>LLMNR</section>
<section>Standard query A djxeqmbfto</section>
<section>70</section>
</packet>

<packet>
<section>71</section>
<section>8.296836</section>
<section>fe80::802a:bdfb:4cbb:6ebf</section>
<section>ff02::1:3</section>
<section>LLMNR</section>
<section>Standard query A qwawvfquzc</section>
<section>90</section>
</packet>

<packet>
<section>72</section>
<section>8.296895</section>
<section>192.168.2.1</section>
<section>224.0.0.252</section>
<section>LLMNR</section>
<section>Standard query A qwawvfquzc</section>
<section>70</section>
</packet>

<packet>
<section>73</section>
<section>8.297313</section>
<section>fe80::802a:bdfb:4cbb:6ebf</section>
<section>ff02::1:3</section>
<section>LLMNR</section>
<section>Standard query A ideawxovnx</section>
<section>90</section>
</packet>

<packet>
<section>74</section>
<section>8.297370</section>
<section>192.168.2.1</section>
<section>224.0.0.252</section>
<section>LLMNR</section>
<section>Standard query A ideawxovnx</section>
<section>70</section>
</packet>

<packet>
<section>75</section>
<section>8.434617</section>
<section>192.168.2.1</section>
<section>192.168.2.255</section>
<section>NBNS</section>
<section>Name query NB NOMAD&lt;20&gt;</section>
<section>92</section>
</packet>

<packet>
<section>76</section>
<section>8.502025</section>
<section>192.168.2.1</section>
<section>192.168.2.255</section>
<section>NBNS</section>
<section>Name query NB DJXEQMBFTO&lt;00&gt;</section>
<section>92</section>
</packet>

<packet>
<section>77</section>
<section>8.502464</section>
<section>192.168.2.1</section>
<section>192.168.2.255</section>
<section>NBNS</section>
<section>Name query NB QWAWVFQUZC&lt;00&gt;</section>
<section>92</section>
</packet>

<packet>
<section>78</section>
<section>8.502830</section>
<section>192.168.2.1</section>
<section>192.168.2.255</section>
<section>NBNS</section>
<section>Name query NB IDEAWXOVNX&lt;00&gt;</section>
<section>92</section>
</packet>

<packet>
<section>79</section>
<section>8.564153</section>
<section>192.168.2.1</section>
<section>192.168.2.255</section>
<section>BROWSER</section>
<section>Request Announcement MAIN</section>
<section>217</section>
</packet>

<packet>
<section>80</section>
<section>9.208718</section>
<section>192.168.2.1</section>
<section>192.168.2.255</section>
<section>NBNS</section>
<section>Name query NB NOMAD&lt;20&gt;</section>
<section>92</section>
</packet>

<packet>
<section>81</section>
<section>9.271781</section>
<section>192.168.2.1</section>
<section>192.168.2.255</section>
<section>NBNS</section>
<section>Name query NB DJXEQMBFTO&lt;00&gt;</section>
<section>92</section>
</packet>

<packet>
<section>82</section>
<section>9.273204</section>
<section>192.168.2.1</section>
<section>192.168.2.255</section>
<section>NBNS</section>
<section>Name query NB QWAWVFQUZC&lt;00&gt;</section>
<section>92</section>
</packet>

<packet>
<section>83</section>
<section>9.273264</section>
<section>192.168.2.1</section>
<section>192.168.2.255</section>
<section>NBNS</section>
<section>Name query NB IDEAWXOVNX&lt;00&gt;</section>
<section>92</section>
</packet>

<packet>
<section>84</section>
<section>10.030804</section>
<section>192.168.2.1</section>
<section>192.168.2.255</section>
<section>NBNS</section>
<section>Name query NB DJXEQMBFTO&lt;00&gt;</section>
<section>92</section>
</packet>

<packet>
<section>85</section>
<section>10.032269</section>
<section>192.168.2.1</section>
<section>192.168.2.255</section>
<section>NBNS</section>
<section>Name query NB IDEAWXOVNX&lt;00&gt;</section>
<section>92</section>
</packet>

<packet>
<section>86</section>
<section>10.032341</section>
<section>192.168.2.1</section>
<section>192.168.2.255</section>
<section>NBNS</section>
<section>Name query NB QWAWVFQUZC&lt;00&gt;</section>
<section>92</section>
</packet>

<packet>
<section>87</section>
<section>10.092843</section>
<section>192.168.2.1</section>
<section>192.168.2.255</section>
<section>BROWSER</section>
<section>Browser Election Request</section>
<section>229</section>
</packet>

<packet>
<section>88</section>
<section>10.240453</section>
<section>192.168.2.1</section>
<section>239.255.255.250</section>
<section>SSDP</section>
<section>M-SEARCH * HTTP/1.1 </section>
<section>175</section>
</packet>

<packet>
<section>89</section>
<section>10.813254</section>
<section>fe80::802a:bdfb:4cbb:6ebf</section>
<section>ff02::1:3</section>
<section>LLMNR</section>
<section>Standard query A wpad</section>
<section>84</section>
</packet>

<packet>
<section>90</section>
<section>10.813339</section>
<section>192.168.2.1</section>
<section>224.0.0.252</section>
<section>LLMNR</section>
<section>Standard query A wpad</section>
<section>64</section>
</packet>

<packet>
<section>91</section>
<section>10.813713</section>
<section>fe80::802a:bdfb:4cbb:6ebf</section>
<section>ff02::1:3</section>
<section>LLMNR</section>
<section>Standard query A wpad</section>
<section>84</section>
</packet>

<packet>
<section>92</section>
<section>10.813777</section>
<section>192.168.2.1</section>
<section>224.0.0.252</section>
<section>LLMNR</section>
<section>Standard query A wpad</section>
<section>64</section>
</packet>

<packet>
<section>93</section>
<section>10.814378</section>
<section>fe80::802a:bdfb:4cbb:6ebf</section>
<section>ff02::1:3</section>
<section>LLMNR</section>
<section>Standard query A wpad</section>
<section>84</section>
</packet>

<packet>
<section>94</section>
<section>10.814444</section>
<section>192.168.2.1</section>
<section>224.0.0.252</section>
<section>LLMNR</section>
<section>Standard query A wpad</section>
<section>64</section>
</packet>

<packet>
<section>95</section>
<section>11.017925</section>
<section>192.168.2.1</section>
<section>192.168.2.255</section>
<section>NBNS</section>
<section>Name query NB WPAD&lt;00&gt;</section>
<section>92</section>
</packet>

<packet>
<section>96</section>
<section>11.018012</section>
<section>192.168.2.1</section>
<section>192.168.2.255</section>
<section>NBNS</section>
<section>Name query NB WPAD&lt;00&gt;</section>
<section>92</section>
</packet>

<packet>
<section>97</section>
<section>11.018632</section>
<section>192.168.2.1</section>
<section>192.168.2.255</section>
<section>NBNS</section>
<section>Name query NB WPAD&lt;00&gt;</section>
<section>92</section>
</packet>

<packet>
<section>98</section>
<section>11.101465</section>
<section>192.168.2.1</section>
<section>192.168.2.255</section>
<section>BROWSER</section>
<section>Browser Election Request</section>
<section>229</section>
</packet>

<packet>
<section>99</section>
<section>11.778982</section>
<section>192.168.2.1</section>
<section>192.168.2.255</section>
<section>NBNS</section>
<section>Name query NB WPAD&lt;00&gt;</section>
<section>92</section>
</packet>

<packet>
<section>100</section>
<section>11.779038</section>
<section>192.168.2.1</section>
<section>192.168.2.255</section>
<section>NBNS</section>
<section>Name query NB WPAD&lt;00&gt;</section>
<section>92</section>
</packet>

<packet>
<section>101</section>
<section>11.779473</section>
<section>192.168.2.1</section>
<section>192.168.2.255</section>
<section>NBNS</section>
<section>Name query NB WPAD&lt;00&gt;</section>
<section>92</section>
</packet>

<packet>
<section>102</section>
<section>12.114579</section>
<section>192.168.2.1</section>
<section>192.168.2.255</section>
<section>BROWSER</section>
<section>Browser Election Request</section>
<section>229</section>
</packet>

<packet>
<section>103</section>
<section>12.535575</section>
<section>192.168.2.1</section>
<section>192.168.2.255</section>
<section>NBNS</section>
<section>Name query NB WPAD&lt;00&gt;</section>
<section>92</section>
</packet>

<packet>
<section>104</section>
<section>12.535638</section>
<section>192.168.2.1</section>
<section>192.168.2.255</section>
<section>NBNS</section>
<section>Name query NB WPAD&lt;00&gt;</section>
<section>92</section>
</packet>

<packet>
<section>105</section>
<section>12.536060</section>
<section>192.168.2.1</section>
<section>192.168.2.255</section>
<section>NBNS</section>
<section>Name query NB WPAD&lt;00&gt;</section>
<section>92</section>
</packet>

<packet>
<section>106</section>
<section>13.049713</section>
<section>fe80::802a:bdfb:4cbb:6ebf</section>
<section>ff02::1:2</section>
<section>DHCPv6</section>
<section>Solicit XID: 0xdbaea7 CID: 0001000114a6911d001fd0504fd7 </section>
<section>146</section>
</packet>

<packet>
<section>107</section>
<section>13.125512</section>
<section>192.168.2.1</section>
<section>192.168.2.255</section>
<section>BROWSER</section>
<section>Browser Election Request</section>
<section>229</section>
</packet>

<packet>
<section>108</section>
<section>13.192193</section>
<section>CadmusCo_06:b1:86</section>
<section>Broadcast</section>
<section>ARP</section>
<section>Gratuitous ARP for 192.168.2.2 (Request)</section>
<section>60</section>
</packet>

<packet>
<section>109</section>
<section>13.272810</section>
<section>192.168.2.1</section>
<section>239.255.255.250</section>
<section>SSDP</section>
<section>M-SEARCH * HTTP/1.1 </section>
<section>175</section>
</packet>

<packet>
<section>110</section>
<section>14.133860</section>
<section>192.168.2.1</section>
<section>192.168.2.255</section>
<section>NBNS</section>
<section>Registration NB WORKGROUP&lt;1d&gt;</section>
<section>110</section>
</packet>

<packet>
<section>111</section>
<section>14.195102</section>
<section>CadmusCo_06:b1:86</section>
<section>Broadcast</section>
<section>ARP</section>
<section>Gratuitous ARP for 192.168.2.2 (Request)</section>
<section>60</section>
</packet>

<packet>
<section>112</section>
<section>14.885876</section>
<section>192.168.2.1</section>
<section>192.168.2.255</section>
<section>NBNS</section>
<section>Registration NB WORKGROUP&lt;1d&gt;</section>
<section>110</section>
</packet>

<packet>
<section>113</section>
<section>15.200381</section>
<section>CadmusCo_06:b1:86</section>
<section>Broadcast</section>
<section>ARP</section>
<section>Gratuitous ARP for 192.168.2.2 (Request)</section>
<section>60</section>
</packet>

<packet>
<section>114</section>
<section>15.419315</section>
<section>00000000.08002706b186</section>
<section>00000000.ffffffffffff</section>
<section>IPX RIP</section>
<section>Request</section>
<section>60</section>
</packet>

<packet>
<section>115</section>
<section>15.480416</section>
<section>00000000.08002706b186</section>
<section>00000000.ffffffffffff</section>
<section>IPX RIP</section>
<section>Request</section>
<section>60</section>
</packet>

<packet>
<section>116</section>
<section>15.539589</section>
<section>00000000.08002706b186</section>
<section>00000000.ffffffffffff</section>
<section>IPX RIP</section>
<section>Request</section>
<section>60</section>
</packet>

<packet>
<section>117</section>
<section>15.600428</section>
<section>00000000.08002706b186</section>
<section>00000000.ffffffffffff</section>
<section>IPX RIP</section>
<section>Request</section>
<section>62</section>
</packet>

<packet>
<section>118</section>
<section>15.636467</section>
<section>192.168.2.1</section>
<section>192.168.2.255</section>
<section>NBNS</section>
<section>Registration NB WORKGROUP&lt;1d&gt;</section>
<section>110</section>
</packet>

<packet>
<section>119</section>
<section>16.120986</section>
<section>192.168.2.2</section>
<section>192.168.2.255</section>
<section>NBNS</section>
<section>Registration NB VIRTUALXP&lt;00&gt;</section>
<section>110</section>
</packet>

<packet>
<section>120</section>
<section>16.142446</section>
<section>192.168.2.1</section>
<section>255.255.255.255</section>
<section>DB-LSP-DISC</section>
<section>Dropbox LAN sync Discovery Protocol</section>
<section>169</section>
</packet>

<packet>
<section>121</section>
<section>16.170605</section>
<section>192.168.2.1</section>
<section>192.168.2.255</section>
<section>DB-LSP-DISC</section>
<section>Dropbox LAN sync Discovery Protocol</section>
<section>169</section>
</packet>

<packet>
<section>122</section>
<section>16.200593</section>
<section>00000000.08002706b186</section>
<section>00000000.ffffffffffff</section>
<section>IPX RIP</section>
<section>Request</section>
<section>60</section>
</packet>

<packet>
<section>123</section>
<section>16.260176</section>
<section>00000000.08002706b186</section>
<section>00000000.ffffffffffff</section>
<section>IPX RIP</section>
<section>Request</section>
<section>60</section>
</packet>

<packet>
<section>124</section>
<section>16.320353</section>
<section>00000000.08002706b186</section>
<section>00000000.ffffffffffff</section>
<section>IPX RIP</section>
<section>Request</section>
<section>60</section>
</packet>

<packet>
<section>125</section>
<section>16.380225</section>
<section>00000000.08002706b186</section>
<section>00000000.ffffffffffff</section>
<section>IPX RIP</section>
<section>Request</section>
<section>62</section>
</packet>

<packet>
<section>126</section>
<section>16.386552</section>
<section>192.168.2.1</section>
<section>192.168.2.255</section>
<section>NBNS</section>
<section>Registration NB WORKGROUP&lt;1d&gt;</section>
<section>110</section>
</packet>

<packet>
<section>127</section>
<section>16.871122</section>
<section>192.168.2.2</section>
<section>192.168.2.255</section>
<section>NBNS</section>
<section>Registration NB VIRTUALXP&lt;00&gt;</section>
<section>110</section>
</packet>

<packet>
<section>128</section>
<section>16.981677</section>
<section>00000000.08002706b186</section>
<section>00000000.ffffffffffff</section>
<section>IPX RIP</section>